V -t * -v 1.0a5 -a 0
A -t * -n 1 -p 0 -o 0x7fffffff -c 30 -a 1
A -t * -h 1 -m 1073741823 -s 0
c -t * -i 1 -n Blue
c -t * -i 2 -n Red
n -t * -a 4 -s 4 -S UP -v circle -c black -i black
n -t * -a 0 -s 0 -S UP -v circle -c black -i black
n -t * -a 5 -s 5 -S UP -v circle -c black -i black
n -t * -a 1 -s 1 -S UP -v circle -c black -i black
n -t * -a 2 -s 2 -S UP -v circle -c black -i black
n -t * -a 3 -s 3 -S UP -v circle -c black -i black
l -t * -s 0 -d 2 -S UP -r 100000000 -D 0.0050000000000000001 -c black -o right-down
l -t * -s 1 -d 2 -S UP -r 100000000 -D 0.026000000000000002 -c black -o right-up
l -t * -s 2 -d 3 -S UP -r 100000 -D 0.001 -c black -o right
l -t * -s 3 -d 4 -S UP -r 100000000 -D 0.0050000000000000001 -c black -o right-up
l -t * -s 3 -d 5 -S UP -r 100000000 -D 0.0080000000000000002 -c black -o right-down
q -t * -s 2 -d 1 -a 0.5
q -t * -s 1 -d 2 -a 0.5
+ -t 1 -s 0 -d 2 -p tcp -e 40 -c 1 -i 0 -a 1 -x {0.0 4.0 0 ------- null}
- -t 1 -s 0 -d 2 -p tcp -e 40 -c 1 -i 0 -a 1 -x {0.0 4.0 0 ------- null}
h -t 1 -s 0 -d 2 -p tcp -e 40 -c 1 -i 0 -a 1 -x {0.0 4.0 -1 ------- null}
r -t 1.0050032 -s 0 -d 2 -p tcp -e 40 -c 1 -i 0 -a 1 -x {0.0 4.0 0 ------- null}
+ -t 1.0050032 -s 2 -d 3 -p tcp -e 40 -c 1 -i 0 -a 1 -x {0.0 4.0 0 ------- null}
- -t 1.0050032 -s 2 -d 3 -p tcp -e 40 -c 1 -i 0 -a 1 -x {0.0 4.0 0 ------- null}
h -t 1.0050032 -s 2 -d 3 -p tcp -e 40 -c 1 -i 0 -a 1 -x {0.0 4.0 -1 ------- null}
r -t 1.0092032 -s 2 -d 3 -p tcp -e 40 -c 1 -i 0 -a 1 -x {0.0 4.0 0 ------- null}
+ -t 1.0092032 -s 3 -d 4 -p tcp -e 40 -c 1 -i 0 -a 1 -x {0.0 4.0 0 ------- null}
- -t 1.0092032 -s 3 -d 4 -p tcp -e 40 -c 1 -i 0 -a 1 -x {0.0 4.0 0 ------- null}
h -t 1.0092032 -s 3 -d 4 -p tcp -e 40 -c 1 -i 0 -a 1 -x {0.0 4.0 -1 ------- null}
r -t 1.0142064 -s 3 -d 4 -p tcp -e 40 -c 1 -i 0 -a 1 -x {0.0 4.0 0 ------- null}
+ -t 1.0142064 -s 4 -d 3 -p ack -e 40 -c 1 -i 1 -a 1 -x {4.0 0.0 0 ------- null}
- -t 1.0142064 -s 4 -d 3 -p ack -e 40 -c 1 -i 1 -a 1 -x {4.0 0.0 0 ------- null}
h -t 1.0142064 -s 4 -d 3 -p ack -e 40 -c 1 -i 1 -a 1 -x {4.0 0.0 -1 ------- null}
r -t 1.0192096 -s 4 -d 3 -p ack -e 40 -c 1 -i 1 -a 1 -x {4.0 0.0 0 ------- null}
+ -t 1.0192096 -s 3 -d 2 -p ack -e 40 -c 1 -i 1 -a 1 -x {4.0 0.0 0 ------- null}
- -t 1.0192096 -s 3 -d 2 -p ack -e 40 -c 1 -i 1 -a 1 -x {4.0 0.0 0 ------- null}
h -t 1.0192096 -s 3 -d 2 -p ack -e 40 -c 1 -i 1 -a 1 -x {4.0 0.0 -1 ------- null}
r -t 1.0234096 -s 3 -d 2 -p ack -e 40 -c 1 -i 1 -a 1 -x {4.0 0.0 0 ------- null}
+ -t 1.0234096 -s 2 -d 0 -p ack -e 40 -c 1 -i 1 -a 1 -x {4.0 0.0 0 ------- null}
- -t 1.0234096 -s 2 -d 0 -p ack -e 40 -c 1 -i 1 -a 1 -x {4.0 0.0 0 ------- null}
h -t 1.0234096 -s 2 -d 0 -p ack -e 40 -c 1 -i 1 -a 1 -x {4.0 0.0 -1 ------- null}
r -t 1.0284128 -s 2 -d 0 -p ack -e 40 -c 1 -i 1 -a 1 -x {4.0 0.0 0 ------- null}
+ -t 1.0284128 -s 0 -d 2 -p tcp -e 1040 -c 1 -i 2 -a 1 -x {0.0 4.0 1 ------- null}
- -t 1.0284128 -s 0 -d 2 -p tcp -e 1040 -c 1 -i 2 -a 1 -x {0.0 4.0 1 ------- null}
h -t 1.0284128 -s 0 -d 2 -p tcp -e 1040 -c 1 -i 2 -a 1 -x {0.0 4.0 -1 ------- null}
+ -t 1.0284128 -s 0 -d 2 -p tcp -e 1040 -c 1 -i 3 -a 1 -x {0.0 4.0 2 ------- null}
- -t 1.028496 -s 0 -d 2 -p tcp -e 1040 -c 1 -i 3 -a 1 -x {0.0 4.0 2 ------- null}
h -t 1.028496 -s 0 -d 2 -p tcp -e 1040 -c 1 -i 3 -a 1 -x {0.0 4.0 -1 ------- null}
r -t 1.033496 -s 0 -d 2 -p tcp -e 1040 -c 1 -i 2 -a 1 -x {0.0 4.0 1 ------- null}
+ -t 1.033496 -s 2 -d 3 -p tcp -e 1040 -c 1 -i 2 -a 1 -x {0.0 4.0 1 ------- null}
- -t 1.033496 -s 2 -d 3 -p tcp -e 1040 -c 1 -i 2 -a 1 -x {0.0 4.0 1 ------- null}
h -t 1.033496 -s 2 -d 3 -p tcp -e 1040 -c 1 -i 2 -a 1 -x {0.0 4.0 -1 ------- null}
r -t 1.0335792 -s 0 -d 2 -p tcp -e 1040 -c 1 -i 3 -a 1 -x {0.0 4.0 2 ------- null}
+ -t 1.0335792 -s 2 -d 3 -p tcp -e 1040 -c 1 -i 3 -a 1 -x {0.0 4.0 2 ------- null}
- -t 1.116696 -s 2 -d 3 -p tcp -e 1040 -c 1 -i 3 -a 1 -x {0.0 4.0 2 ------- null}
h -t 1.116696 -s 2 -d 3 -p tcp -e 1040 -c 1 -i 3 -a 1 -x {0.0 4.0 -1 ------- null}
r -t 1.117696 -s 2 -d 3 -p tcp -e 1040 -c 1 -i 2 -a 1 -x {0.0 4.0 1 ------- null}
+ -t 1.117696 -s 3 -d 4 -p tcp -e 1040 -c 1 -i 2 -a 1 -x {0.0 4.0 1 ------- null}
- -t 1.117696 -s 3 -d 4 -p tcp -e 1040 -c 1 -i 2 -a 1 -x {0.0 4.0 1 ------- null}
h -t 1.117696 -s 3 -d 4 -p tcp -e 1040 -c 1 -i 2 -a 1 -x {0.0 4.0 -1 ------- null}
r -t 1.1227792 -s 3 -d 4 -p tcp -e 1040 -c 1 -i 2 -a 1 -x {0.0 4.0 1 ------- null}
+ -t 1.1227792 -s 4 -d 3 -p ack -e 40 -c 1 -i 4 -a 1 -x {4.0 0.0 1 ------- null}
- -t 1.1227792 -s 4 -d 3 -p ack -e 40 -c 1 -i 4 -a 1 -x {4.0 0.0 1 ------- null}
h -t 1.1227792 -s 4 -d 3 -p ack -e 40 -c 1 -i 4 -a 1 -x {4.0 0.0 -1 ------- null}
r -t 1.1277824 -s 4 -d 3 -p ack -e 40 -c 1 -i 4 -a 1 -x {4.0 0.0 1 ------- null}
+ -t 1.1277824 -s 3 -d 2 -p ack -e 40 -c 1 -i 4 -a 1 -x {4.0 0.0 1 ------- null}
- -t 1.1277824 -s 3 -d 2 -p ack -e 40 -c 1 -i 4 -a 1 -x {4.0 0.0 1 ------- null}
h -t 1.1277824 -s 3 -d 2 -p ack -e 40 -c 1 -i 4 -a 1 -x {4.0 0.0 -1 ------- null}
r -t 1.1319824 -s 3 -d 2 -p ack -e 40 -c 1 -i 4 -a 1 -x {4.0 0.0 1 ------- null}
+ -t 1.1319824 -s 2 -d 0 -p ack -e 40 -c 1 -i 4 -a 1 -x {4.0 0.0 1 ------- null}
- -t 1.1319824 -s 2 -d 0 -p ack -e 40 -c 1 -i 4 -a 1 -x {4.0 0.0 1 ------- null}
h -t 1.1319824 -s 2 -d 0 -p ack -e 40 -c 1 -i 4 -a 1 -x {4.0 0.0 -1 ------- null}
r -t 1.1369856 -s 2 -d 0 -p ack -e 40 -c 1 -i 4 -a 1 -x {4.0 0.0 1 ------- null}
+ -t 1.1369856 -s 0 -d 2 -p tcp -e 1040 -c 1 -i 5 -a 1 -x {0.0 4.0 3 ------- null}
- -t 1.1369856 -s 0 -d 2 -p tcp -e 1040 -c 1 -i 5 -a 1 -x {0.0 4.0 3 ------- null}
h -t 1.1369856 -s 0 -d 2 -p tcp -e 1040 -c 1 -i 5 -a 1 -x {0.0 4.0 -1 ------- null}
+ -t 1.1369856 -s 0 -d 2 -p tcp -e 1040 -c 1 -i 6 -a 1 -x {0.0 4.0 4 ------- null}
- -t 1.1370688 -s 0 -d 2 -p tcp -e 1040 -c 1 -i 6 -a 1 -x {0.0 4.0 4 ------- null}
h -t 1.1370688 -s 0 -d 2 -p tcp -e 1040 -c 1 -i 6 -a 1 -x {0.0 4.0 -1 ------- null}
r -t 1.1420688 -s 0 -d 2 -p tcp -e 1040 -c 1 -i 5 -a 1 -x {0.0 4.0 3 ------- null}
+ -t 1.1420688 -s 2 -d 3 -p tcp -e 1040 -c 1 -i 5 -a 1 -x {0.0 4.0 3 ------- null}
r -t 1.142152 -s 0 -d 2 -p tcp -e 1040 -c 1 -i 6 -a 1 -x {0.0 4.0 4 ------- null}
+ -t 1.142152 -s 2 -d 3 -p tcp -e 1040 -c 1 -i 6 -a 1 -x {0.0 4.0 4 ------- null}
- -t 1.199896 -s 2 -d 3 -p tcp -e 1040 -c 1 -i 5 -a 1 -x {0.0 4.0 3 ------- null}
h -t 1.199896 -s 2 -d 3 -p tcp -e 1040 -c 1 -i 5 -a 1 -x {0.0 4.0 -1 ------- null}
r -t 1.200896 -s 2 -d 3 -p tcp -e 1040 -c 1 -i 3 -a 1 -x {0.0 4.0 2 ------- null}
+ -t 1.200896 -s 3 -d 4 -p tcp -e 1040 -c 1 -i 3 -a 1 -x {0.0 4.0 2 ------- null}
- -t 1.200896 -s 3 -d 4 -p tcp -e 1040 -c 1 -i 3 -a 1 -x {0.0 4.0 2 ------- null}
h -t 1.200896 -s 3 -d 4 -p tcp -e 1040 -c 1 -i 3 -a 1 -x {0.0 4.0 -1 ------- null}
r -t 1.2059792 -s 3 -d 4 -p tcp -e 1040 -c 1 -i 3 -a 1 -x {0.0 4.0 2 ------- null}
+ -t 1.2059792 -s 4 -d 3 -p ack -e 40 -c 1 -i 7 -a 1 -x {4.0 0.0 2 ------- null}
- -t 1.2059792 -s 4 -d 3 -p ack -e 40 -c 1 -i 7 -a 1 -x {4.0 0.0 2 ------- null}
h -t 1.2059792 -s 4 -d 3 -p ack -e 40 -c 1 -i 7 -a 1 -x {4.0 0.0 -1 ------- null}
r -t 1.2109824 -s 4 -d 3 -p ack -e 40 -c 1 -i 7 -a 1 -x {4.0 0.0 2 ------- null}
+ -t 1.2109824 -s 3 -d 2 -p ack -e 40 -c 1 -i 7 -a 1 -x {4.0 0.0 2 ------- null}
- -t 1.2109824 -s 3 -d 2 -p ack -e 40 -c 1 -i 7 -a 1 -x {4.0 0.0 2 ------- null}
h -t 1.2109824 -s 3 -d 2 -p ack -e 40 -c 1 -i 7 -a 1 -x {4.0 0.0 -1 ------- null}
r -t 1.2151824 -s 3 -d 2 -p ack -e 40 -c 1 -i 7 -a 1 -x {4.0 0.0 2 ------- null}
+ -t 1.2151824 -s 2 -d 0 -p ack -e 40 -c 1 -i 7 -a 1 -x {4.0 0.0 2 ------- null}
- -t 1.2151824 -s 2 -d 0 -p ack -e 40 -c 1 -i 7 -a 1 -x {4.0 0.0 2 ------- null}
h -t 1.2151824 -s 2 -d 0 -p ack -e 40 -c 1 -i 7 -a 1 -x {4.0 0.0 -1 ------- null}
r -t 1.2201856 -s 2 -d 0 -p ack -e 40 -c 1 -i 7 -a 1 -x {4.0 0.0 2 ------- null}
+ -t 1.2201856 -s 0 -d 2 -p tcp -e 1040 -c 1 -i 8 -a 1 -x {0.0 4.0 5 ------- null}
- -t 1.2201856 -s 0 -d 2 -p tcp -e 1040 -c 1 -i 8 -a 1 -x {0.0 4.0 5 ------- null}
h -t 1.2201856 -s 0 -d 2 -p tcp -e 1040 -c 1 -i 8 -a 1 -x {0.0 4.0 -1 ------- null}
+ -t 1.2201856 -s 0 -d 2 -p tcp -e 1040 -c 1 -i 9 -a 1 -x {0.0 4.0 6 ------- null}
- -t 1.2202688 -s 0 -d 2 -p tcp -e 1040 -c 1 -i 9 -a 1 -x {0.0 4.0 6 ------- null}
h -t 1.2202688 -s 0 -d 2 -p tcp -e 1040 -c 1 -i 9 -a 1 -x {0.0 4.0 -1 ------- null}
r -t 1.2252688 -s 0 -d 2 -p tcp -e 1040 -c 1 -i 8 -a 1 -x {0.0 4.0 5 ------- null}
+ -t 1.2252688 -s 2 -d 3 -p tcp -e 1040 -c 1 -i 8 -a 1 -x {0.0 4.0 5 ------- null}
r -t 1.225352 -s 0 -d 2 -p tcp -e 1040 -c 1 -i 9 -a 1 -x {0.0 4.0 6 ------- null}
+ -t 1.225352 -s 2 -d 3 -p tcp -e 1040 -c 1 -i 9 -a 1 -x {0.0 4.0 6 ------- null}
- -t 1.283096 -s 2 -d 3 -p tcp -e 1040 -c 1 -i 6 -a 1 -x {0.0 4.0 4 ------- null}
h -t 1.283096 -s 2 -d 3 -p tcp -e 1040 -c 1 -i 6 -a 1 -x {0.0 4.0 -1 ------- null}
r -t 1.284096 -s 2 -d 3 -p tcp -e 1040 -c 1 -i 5 -a 1 -x {0.0 4.0 3 ------- null}
+ -t 1.284096 -s 3 -d 4 -p tcp -e 1040 -c 1 -i 5 -a 1 -x {0.0 4.0 3 ------- null}
- -t 1.284096 -s 3 -d 4 -p tcp -e 1040 -c 1 -i 5 -a 1 -x {0.0 4.0 3 ------- null}
h -t 1.284096 -s 3 -d 4 -p tcp -e 1040 -c 1 -i 5 -a 1 -x {0.0 4.0 -1 ------- null}
r -t 1.2891792 -s 3 -d 4 -p tcp -e 1040 -c 1 -i 5 -a 1 -x {0.0 4.0 3 ------- null}
+ -t 1.2891792 -s 4 -d 3 -p ack -e 40 -c 1 -i 10 -a 1 -x {4.0 0.0 3 ------- null}
- -t 1.2891792 -s 4 -d 3 -p ack -e 40 -c 1 -i 10 -a 1 -x {4.0 0.0 3 ------- null}
h -t 1.2891792 -s 4 -d 3 -p ack -e 40 -c 1 -i 10 -a 1 -x {4.0 0.0 -1 ------- null}
r -t 1.2941824 -s 4 -d 3 -p ack -e 40 -c 1 -i 10 -a 1 -x {4.0 0.0 3 ------- null}
+ -t 1.2941824 -s 3 -d 2 -p ack -e 40 -c 1 -i 10 -a 1 -x {4.0 0.0 3 ------- null}
- -t 1.2941824 -s 3 -d 2 -p ack -e 40 -c 1 -i 10 -a 1 -x {4.0 0.0 3 ------- null}
h -t 1.2941824 -s 3 -d 2 -p ack -e 40 -c 1 -i 10 -a 1 -x {4.0 0.0 -1 ------- null}
r -t 1.2983824 -s 3 -d 2 -p ack -e 40 -c 1 -i 10 -a 1 -x {4.0 0.0 3 ------- null}
+ -t 1.2983824 -s 2 -d 0 -p ack -e 40 -c 1 -i 10 -a 1 -x {4.0 0.0 3 ------- null}
- -t 1.2983824 -s 2 -d 0 -p ack -e 40 -c 1 -i 10 -a 1 -x {4.0 0.0 3 ------- null}
h -t 1.2983824 -s 2 -d 0 -p ack -e 40 -c 1 -i 10 -a 1 -x {4.0 0.0 -1 ------- null}
r -t 1.3033856 -s 2 -d 0 -p ack -e 40 -c 1 -i 10 -a 1 -x {4.0 0.0 3 ------- null}
+ -t 1.3033856 -s 0 -d 2 -p tcp -e 1040 -c 1 -i 11 -a 1 -x {0.0 4.0 7 ------- null}
- -t 1.3033856 -s 0 -d 2 -p tcp -e 1040 -c 1 -i 11 -a 1 -x {0.0 4.0 7 ------- null}
h -t 1.3033856 -s 0 -d 2 -p tcp -e 1040 -c 1 -i 11 -a 1 -x {0.0 4.0 -1 ------- null}
+ -t 1.3033856 -s 0 -d 2 -p tcp -e 1040 -c 1 -i 12 -a 1 -x {0.0 4.0 8 ------- null}
- -t 1.3034688 -s 0 -d 2 -p tcp -e 1040 -c 1 -i 12 -a 1 -x {0.0 4.0 8 ------- null}
h -t 1.3034688 -s 0 -d 2 -p tcp -e 1040 -c 1 -i 12 -a 1 -x {0.0 4.0 -1 ------- null}
r -t 1.3084688 -s 0 -d 2 -p tcp -e 1040 -c 1 -i 11 -a 1 -x {0.0 4.0 7 ------- null}
+ -t 1.3084688 -s 2 -d 3 -p tcp -e 1040 -c 1 -i 11 -a 1 -x {0.0 4.0 7 ------- null}
r -t 1.308552 -s 0 -d 2 -p tcp -e 1040 -c 1 -i 12 -a 1 -x {0.0 4.0 8 ------- null}
+ -t 1.308552 -s 2 -d 3 -p tcp -e 1040 -c 1 -i 12 -a 1 -x {0.0 4.0 8 ------- null}
- -t 1.366296 -s 2 -d 3 -p tcp -e 1040 -c 1 -i 8 -a 1 -x {0.0 4.0 5 ------- null}
h -t 1.366296 -s 2 -d 3 -p tcp -e 1040 -c 1 -i 8 -a 1 -x {0.0 4.0 -1 ------- null}
r -t 1.367296 -s 2 -d 3 -p tcp -e 1040 -c 1 -i 6 -a 1 -x {0.0 4.0 4 ------- null}
+ -t 1.367296 -s 3 -d 4 -p tcp -e 1040 -c 1 -i 6 -a 1 -x {0.0 4.0 4 ------- null}
- -t 1.367296 -s 3 -d 4 -p tcp -e 1040 -c 1 -i 6 -a 1 -x {0.0 4.0 4 ------- null}
h -t 1.367296 -s 3 -d 4 -p tcp -e 1040 -c 1 -i 6 -a 1 -x {0.0 4.0 -1 ------- null}
r -t 1.3723792 -s 3 -d 4 -p tcp -e 1040 -c 1 -i 6 -a 1 -x {0.0 4.0 4 ------- null}
+ -t 1.3723792 -s 4 -d 3 -p ack -e 40 -c 1 -i 13 -a 1 -x {4.0 0.0 4 ------- null}
- -t 1.3723792 -s 4 -d 3 -p ack -e 40 -c 1 -i 13 -a 1 -x {4.0 0.0 4 ------- null}
h -t 1.3723792 -s 4 -d 3 -p ack -e 40 -c 1 -i 13 -a 1 -x {4.0 0.0 -1 ------- null}
r -t 1.3773824 -s 4 -d 3 -p ack -e 40 -c 1 -i 13 -a 1 -x {4.0 0.0 4 ------- null}
+ -t 1.3773824 -s 3 -d 2 -p ack -e 40 -c 1 -i 13 -a 1 -x {4.0 0.0 4 ------- null}
- -t 1.3773824 -s 3 -d 2 -p ack -e 40 -c 1 -i 13 -a 1 -x {4.0 0.0 4 ------- null}
h -t 1.3773824 -s 3 -d 2 -p ack -e 40 -c 1 -i 13 -a 1 -x {4.0 0.0 -1 ------- null}
r -t 1.3815824 -s 3 -d 2 -p ack -e 40 -c 1 -i 13 -a 1 -x {4.0 0.0 4 ------- null}
+ -t 1.3815824 -s 2 -d 0 -p ack -e 40 -c 1 -i 13 -a 1 -x {4.0 0.0 4 ------- null}
- -t 1.3815824 -s 2 -d 0 -p ack -e 40 -c 1 -i 13 -a 1 -x {4.0 0.0 4 ------- null}
h -t 1.3815824 -s 2 -d 0 -p ack -e 40 -c 1 -i 13 -a 1 -x {4.0 0.0 -1 ------- null}
r -t 1.3865856 -s 2 -d 0 -p ack -e 40 -c 1 -i 13 -a 1 -x {4.0 0.0 4 ------- null}
+ -t 1.3865856 -s 0 -d 2 -p tcp -e 1040 -c 1 -i 14 -a 1 -x {0.0 4.0 9 ------- null}
- -t 1.3865856 -s 0 -d 2 -p tcp -e 1040 -c 1 -i 14 -a 1 -x {0.0 4.0 9 ------- null}
h -t 1.3865856 -s 0 -d 2 -p tcp -e 1040 -c 1 -i 14 -a 1 -x {0.0 4.0 -1 ------- null}
+ -t 1.3865856 -s 0 -d 2 -p tcp -e 1040 -c 1 -i 15 -a 1 -x {0.0 4.0 10 ------- null}
- -t 1.3866688 -s 0 -d 2 -p tcp -e 1040 -c 1 -i 15 -a 1 -x {0.0 4.0 10 ------- null}
h -t 1.3866688 -s 0 -d 2 -p tcp -e 1040 -c 1 -i 15 -a 1 -x {0.0 4.0 -1 ------- null}
r -t 1.3916688 -s 0 -d 2 -p tcp -e 1040 -c 1 -i 14 -a 1 -x {0.0 4.0 9 ------- null}
+ -t 1.3916688 -s 2 -d 3 -p tcp -e 1040 -c 1 -i 14 -a 1 -x {0.0 4.0 9 ------- null}
r -t 1.391752 -s 0 -d 2 -p tcp -e 1040 -c 1 -i 15 -a 1 -x {0.0 4.0 10 ------- null}
+ -t 1.391752 -s 2 -d 3 -p tcp -e 1040 -c 1 -i 15 -a 1 -x {0.0 4.0 10 ------- null}
- -t 1.449496 -s 2 -d 3 -p tcp -e 1040 -c 1 -i 9 -a 1 -x {0.0 4.0 6 ------- null}
h -t 1.449496 -s 2 -d 3 -p tcp -e 1040 -c 1 -i 9 -a 1 -x {0.0 4.0 -1 ------- null}
r -t 1.450496 -s 2 -d 3 -p tcp -e 1040 -c 1 -i 8 -a 1 -x {0.0 4.0 5 ------- null}
+ -t 1.450496 -s 3 -d 4 -p tcp -e 1040 -c 1 -i 8 -a 1 -x {0.0 4.0 5 ------- null}
- -t 1.450496 -s 3 -d 4 -p tcp -e 1040 -c 1 -i 8 -a 1 -x {0.0 4.0 5 ------- null}
h -t 1.450496 -s 3 -d 4 -p tcp -e 1040 -c 1 -i 8 -a 1 -x {0.0 4.0 -1 ------- null}
r -t 1.4555792 -s 3 -d 4 -p tcp -e 1040 -c 1 -i 8 -a 1 -x {0.0 4.0 5 ------- null}
+ -t 1.4555792 -s 4 -d 3 -p ack -e 40 -c 1 -i 16 -a 1 -x {4.0 0.0 5 ------- null}
- -t 1.4555792 -s 4 -d 3 -p ack -e 40 -c 1 -i 16 -a 1 -x {4.0 0.0 5 ------- null}
h -t 1.4555792 -s 4 -d 3 -p ack -e 40 -c 1 -i 16 -a 1 -x {4.0 0.0 -1 ------- null}
r -t 1.4605824 -s 4 -d 3 -p ack -e 40 -c 1 -i 16 -a 1 -x {4.0 0.0 5 ------- null}
+ -t 1.4605824 -s 3 -d 2 -p ack -e 40 -c 1 -i 16 -a 1 -x {4.0 0.0 5 ------- null}
- -t 1.4605824 -s 3 -d 2 -p ack -e 40 -c 1 -i 16 -a 1 -x {4.0 0.0 5 ------- null}
h -t 1.4605824 -s 3 -d 2 -p ack -e 40 -c 1 -i 16 -a 1 -x {4.0 0.0 -1 ------- null}
r -t 1.4647824 -s 3 -d 2 -p ack -e 40 -c 1 -i 16 -a 1 -x {4.0 0.0 5 ------- null}
+ -t 1.4647824 -s 2 -d 0 -p ack -e 40 -c 1 -i 16 -a 1 -x {4.0 0.0 5 ------- null}
- -t 1.4647824 -s 2 -d 0 -p ack -e 40 -c 1 -i 16 -a 1 -x {4.0 0.0 5 ------- null}
h -t 1.4647824 -s 2 -d 0 -p ack -e 40 -c 1 -i 16 -a 1 -x {4.0 0.0 -1 ------- null}
r -t 1.4697856 -s 2 -d 0 -p ack -e 40 -c 1 -i 16 -a 1 -x {4.0 0.0 5 ------- null}
+ -t 1.4697856 -s 0 -d 2 -p tcp -e 1040 -c 1 -i 17 -a 1 -x {0.0 4.0 11 ------- null}
- -t 1.4697856 -s 0 -d 2 -p tcp -e 1040 -c 1 -i 17 -a 1 -x {0.0 4.0 11 ------- null}
h -t 1.4697856 -s 0 -d 2 -p tcp -e 1040 -c 1 -i 17 -a 1 -x {0.0 4.0 -1 ------- null}
+ -t 1.4697856 -s 0 -d 2 -p tcp -e 1040 -c 1 -i 18 -a 1 -x {0.0 4.0 12 ------- null}
- -t 1.4698688 -s 0 -d 2 -p tcp -e 1040 -c 1 -i 18 -a 1 -x {0.0 4.0 12 ------- null}
h -t 1.4698688 -s 0 -d 2 -p tcp -e 1040 -c 1 -i 18 -a 1 -x {0.0 4.0 -1 ------- null}
r -t 1.4748688 -s 0 -d 2 -p tcp -e 1040 -c 1 -i 17 -a 1 -x {0.0 4.0 11 ------- null}
+ -t 1.4748688 -s 2 -d 3 -p tcp -e 1040 -c 1 -i 17 -a 1 -x {0.0 4.0 11 ------- null}
r -t 1.474952 -s 0 -d 2 -p tcp -e 1040 -c 1 -i 18 -a 1 -x {0.0 4.0 12 ------- null}
+ -t 1.474952 -s 2 -d 3 -p tcp -e 1040 -c 1 -i 18 -a 1 -x {0.0 4.0 12 ------- null}
- -t 1.532696 -s 2 -d 3 -p tcp -e 1040 -c 1 -i 11 -a 1 -x {0.0 4.0 7 ------- null}
h -t 1.532696 -s 2 -d 3 -p tcp -e 1040 -c 1 -i 11 -a 1 -x {0.0 4.0 -1 ------- null}
r -t 1.533696 -s 2 -d 3 -p tcp -e 1040 -c 1 -i 9 -a 1 -x {0.0 4.0 6 ------- null}
+ -t 1.533696 -s 3 -d 4 -p tcp -e 1040 -c 1 -i 9 -a 1 -x {0.0 4.0 6 ------- null}
- -t 1.533696 -s 3 -d 4 -p tcp -e 1040 -c 1 -i 9 -a 1 -x {0.0 4.0 6 ------- null}
h -t 1.533696 -s 3 -d 4 -p tcp -e 1040 -c 1 -i 9 -a 1 -x {0.0 4.0 -1 ------- null}
r -t 1.5387792 -s 3 -d 4 -p tcp -e 1040 -c 1 -i 9 -a 1 -x {0.0 4.0 6 ------- null}
+ -t 1.5387792 -s 4 -d 3 -p ack -e 40 -c 1 -i 19 -a 1 -x {4.0 0.0 6 ------- null}
- -t 1.5387792 -s 4 -d 3 -p ack -e 40 -c 1 -i 19 -a 1 -x {4.0 0.0 6 ------- null}
h -t 1.5387792 -s 4 -d 3 -p ack -e 40 -c 1 -i 19 -a 1 -x {4.0 0.0 -1 ------- null}
r -t 1.5437824 -s 4 -d 3 -p ack -e 40 -c 1 -i 19 -a 1 -x {4.0 0.0 6 ------- null}
+ -t 1.5437824 -s 3 -d 2 -p ack -e 40 -c 1 -i 19 -a 1 -x {4.0 0.0 6 ------- null}
- -t 1.5437824 -s 3 -d 2 -p ack -e 40 -c 1 -i 19 -a 1 -x {4.0 0.0 6 ------- null}
h -t 1.5437824 -s 3 -d 2 -p ack -e 40 -c 1 -i 19 -a 1 -x {4.0 0.0 -1 ------- null}
r -t 1.5479824 -s 3 -d 2 -p ack -e 40 -c 1 -i 19 -a 1 -x {4.0 0.0 6 ------- null}
+ -t 1.5479824 -s 2 -d 0 -p ack -e 40 -c 1 -i 19 -a 1 -x {4.0 0.0 6 ------- null}
- -t 1.5479824 -s 2 -d 0 -p ack -e 40 -c 1 -i 19 -a 1 -x {4.0 0.0 6 ------- null}
h -t 1.5479824 -s 2 -d 0 -p ack -e 40 -c 1 -i 19 -a 1 -x {4.0 0.0 -1 ------- null}
r -t 1.5529856 -s 2 -d 0 -p ack -e 40 -c 1 -i 19 -a 1 -x {4.0 0.0 6 ------- null}
+ -t 1.5529856 -s 0 -d 2 -p tcp -e 1040 -c 1 -i 20 -a 1 -x {0.0 4.0 13 ------- null}
- -t 1.5529856 -s 0 -d 2 -p tcp -e 1040 -c 1 -i 20 -a 1 -x {0.0 4.0 13 ------- null}
h -t 1.5529856 -s 0 -d 2 -p tcp -e 1040 -c 1 -i 20 -a 1 -x {0.0 4.0 -1 ------- null}
+ -t 1.5529856 -s 0 -d 2 -p tcp -e 1040 -c 1 -i 21 -a 1 -x {0.0 4.0 14 ------- null}
- -t 1.5530688 -s 0 -d 2 -p tcp -e 1040 -c 1 -i 21 -a 1 -x {0.0 4.0 14 ------- null}
h -t 1.5530688 -s 0 -d 2 -p tcp -e 1040 -c 1 -i 21 -a 1 -x {0.0 4.0 -1 ------- null}
r -t 1.5580688 -s 0 -d 2 -p tcp -e 1040 -c 1 -i 20 -a 1 -x {0.0 4.0 13 ------- null}
+ -t 1.5580688 -s 2 -d 3 -p tcp -e 1040 -c 1 -i 20 -a 1 -x {0.0 4.0 13 ------- null}
r -t 1.558152 -s 0 -d 2 -p tcp -e 1040 -c 1 -i 21 -a 1 -x {0.0 4.0 14 ------- null}
+ -t 1.558152 -s 2 -d 3 -p tcp -e 1040 -c 1 -i 21 -a 1 -x {0.0 4.0 14 ------- null}
- -t 1.615896 -s 2 -d 3 -p tcp -e 1040 -c 1 -i 12 -a 1 -x {0.0 4.0 8 ------- null}
h -t 1.615896 -s 2 -d 3 -p tcp -e 1040 -c 1 -i 12 -a 1 -x {0.0 4.0 -1 ------- null}
r -t 1.616896 -s 2 -d 3 -p tcp -e 1040 -c 1 -i 11 -a 1 -x {0.0 4.0 7 ------- null}
+ -t 1.616896 -s 3 -d 4 -p tcp -e 1040 -c 1 -i 11 -a 1 -x {0.0 4.0 7 ------- null}
- -t 1.616896 -s 3 -d 4 -p tcp -e 1040 -c 1 -i 11 -a 1 -x {0.0 4.0 7 ------- null}
h -t 1.616896 -s 3 -d 4 -p tcp -e 1040 -c 1 -i 11 -a 1 -x {0.0 4.0 -1 ------- null}
r -t 1.6219792 -s 3 -d 4 -p tcp -e 1040 -c 1 -i 11 -a 1 -x {0.0 4.0 7 ------- null}
+ -t 1.6219792 -s 4 -d 3 -p ack -e 40 -c 1 -i 22 -a 1 -x {4.0 0.0 7 ------- null}
- -t 1.6219792 -s 4 -d 3 -p ack -e 40 -c 1 -i 22 -a 1 -x {4.0 0.0 7 ------- null}
h -t 1.6219792 -s 4 -d 3 -p ack -e 40 -c 1 -i 22 -a 1 -x {4.0 0.0 -1 ------- null}
r -t 1.6269824 -s 4 -d 3 -p ack -e 40 -c 1 -i 22 -a 1 -x {4.0 0.0 7 ------- null}
+ -t 1.6269824 -s 3 -d 2 -p ack -e 40 -c 1 -i 22 -a 1 -x {4.0 0.0 7 ------- null}
- -t 1.6269824 -s 3 -d 2 -p ack -e 40 -c 1 -i 22 -a 1 -x {4.0 0.0 7 ------- null}
h -t 1.6269824 -s 3 -d 2 -p ack -e 40 -c 1 -i 22 -a 1 -x {4.0 0.0 -1 ------- null}
r -t 1.6311824 -s 3 -d 2 -p ack -e 40 -c 1 -i 22 -a 1 -x {4.0 0.0 7 ------- null}
+ -t 1.6311824 -s 2 -d 0 -p ack -e 40 -c 1 -i 22 -a 1 -x {4.0 0.0 7 ------- null}
- -t 1.6311824 -s 2 -d 0 -p ack -e 40 -c 1 -i 22 -a 1 -x {4.0 0.0 7 ------- null}
h -t 1.6311824 -s 2 -d 0 -p ack -e 40 -c 1 -i 22 -a 1 -x {4.0 0.0 -1 ------- null}
r -t 1.6361856 -s 2 -d 0 -p ack -e 40 -c 1 -i 22 -a 1 -x {4.0 0.0 7 ------- null}
+ -t 1.6361856 -s 0 -d 2 -p tcp -e 1040 -c 1 -i 23 -a 1 -x {0.0 4.0 15 ------- null}
- -t 1.6361856 -s 0 -d 2 -p tcp -e 1040 -c 1 -i 23 -a 1 -x {0.0 4.0 15 ------- null}
h -t 1.6361856 -s 0 -d 2 -p tcp -e 1040 -c 1 -i 23 -a 1 -x {0.0 4.0 -1 ------- null}
+ -t 1.6361856 -s 0 -d 2 -p tcp -e 1040 -c 1 -i 24 -a 1 -x {0.0 4.0 16 ------- null}
- -t 1.6362688 -s 0 -d 2 -p tcp -e 1040 -c 1 -i 24 -a 1 -x {0.0 4.0 16 ------- null}
h -t 1.6362688 -s 0 -d 2 -p tcp -e 1040 -c 1 -i 24 -a 1 -x {0.0 4.0 -1 ------- null}
r -t 1.6412688 -s 0 -d 2 -p tcp -e 1040 -c 1 -i 23 -a 1 -x {0.0 4.0 15 ------- null}
+ -t 1.6412688 -s 2 -d 3 -p tcp -e 1040 -c 1 -i 23 -a 1 -x {0.0 4.0 15 ------- null}
r -t 1.641352 -s 0 -d 2 -p tcp -e 1040 -c 1 -i 24 -a 1 -x {0.0 4.0 16 ------- null}
+ -t 1.641352 -s 2 -d 3 -p tcp -e 1040 -c 1 -i 24 -a 1 -x {0.0 4.0 16 ------- null}
- -t 1.699096 -s 2 -d 3 -p tcp -e 1040 -c 1 -i 14 -a 1 -x {0.0 4.0 9 ------- null}
h -t 1.699096 -s 2 -d 3 -p tcp -e 1040 -c 1 -i 14 -a 1 -x {0.0 4.0 -1 ------- null}
r -t 1.700096 -s 2 -d 3 -p tcp -e 1040 -c 1 -i 12 -a 1 -x {0.0 4.0 8 ------- null}
+ -t 1.700096 -s 3 -d 4 -p tcp -e 1040 -c 1 -i 12 -a 1 -x {0.0 4.0 8 ------- null}
- -t 1.700096 -s 3 -d 4 -p tcp -e 1040 -c 1 -i 12 -a 1 -x {0.0 4.0 8 ------- null}
h -t 1.700096 -s 3 -d 4 -p tcp -e 1040 -c 1 -i 12 -a 1 -x {0.0 4.0 -1 ------- null}
r -t 1.7051792 -s 3 -d 4 -p tcp -e 1040 -c 1 -i 12 -a 1 -x {0.0 4.0 8 ------- null}
+ -t 1.7051792 -s 4 -d 3 -p ack -e 40 -c 1 -i 25 -a 1 -x {4.0 0.0 8 ------- null}
- -t 1.7051792 -s 4 -d 3 -p ack -e 40 -c 1 -i 25 -a 1 -x {4.0 0.0 8 ------- null}
h -t 1.7051792 -s 4 -d 3 -p ack -e 40 -c 1 -i 25 -a 1 -x {4.0 0.0 -1 ------- null}
r -t 1.7101824 -s 4 -d 3 -p ack -e 40 -c 1 -i 25 -a 1 -x {4.0 0.0 8 ------- null}
+ -t 1.7101824 -s 3 -d 2 -p ack -e 40 -c 1 -i 25 -a 1 -x {4.0 0.0 8 ------- null}
- -t 1.7101824 -s 3 -d 2 -p ack -e 40 -c 1 -i 25 -a 1 -x {4.0 0.0 8 ------- null}
h -t 1.7101824 -s 3 -d 2 -p ack -e 40 -c 1 -i 25 -a 1 -x {4.0 0.0 -1 ------- null}
r -t 1.7143824 -s 3 -d 2 -p ack -e 40 -c 1 -i 25 -a 1 -x {4.0 0.0 8 ------- null}
+ -t 1.7143824 -s 2 -d 0 -p ack -e 40 -c 1 -i 25 -a 1 -x {4.0 0.0 8 ------- null}
- -t 1.7143824 -s 2 -d 0 -p ack -e 40 -c 1 -i 25 -a 1 -x {4.0 0.0 8 ------- null}
h -t 1.7143824 -s 2 -d 0 -p ack -e 40 -c 1 -i 25 -a 1 -x {4.0 0.0 -1 ------- null}
r -t 1.7193856 -s 2 -d 0 -p ack -e 40 -c 1 -i 25 -a 1 -x {4.0 0.0 8 ------- null}
+ -t 1.7193856 -s 0 -d 2 -p tcp -e 1040 -c 1 -i 26 -a 1 -x {0.0 4.0 17 ------- null}
- -t 1.7193856 -s 0 -d 2 -p tcp -e 1040 -c 1 -i 26 -a 1 -x {0.0 4.0 17 ------- null}
h -t 1.7193856 -s 0 -d 2 -p tcp -e 1040 -c 1 -i 26 -a 1 -x {0.0 4.0 -1 ------- null}
+ -t 1.7193856 -s 0 -d 2 -p tcp -e 1040 -c 1 -i 27 -a 1 -x {0.0 4.0 18 ------- null}
- -t 1.7194688 -s 0 -d 2 -p tcp -e 1040 -c 1 -i 27 -a 1 -x {0.0 4.0 18 ------- null}
h -t 1.7194688 -s 0 -d 2 -p tcp -e 1040 -c 1 -i 27 -a 1 -x {0.0 4.0 -1 ------- null}
r -t 1.7244688 -s 0 -d 2 -p tcp -e 1040 -c 1 -i 26 -a 1 -x {0.0 4.0 17 ------- null}
+ -t 1.7244688 -s 2 -d 3 -p tcp -e 1040 -c 1 -i 26 -a 1 -x {0.0 4.0 17 ------- null}
r -t 1.724552 -s 0 -d 2 -p tcp -e 1040 -c 1 -i 27 -a 1 -x {0.0 4.0 18 ------- null}
+ -t 1.724552 -s 2 -d 3 -p tcp -e 1040 -c 1 -i 27 -a 1 -x {0.0 4.0 18 ------- null}
- -t 1.782296 -s 2 -d 3 -p tcp -e 1040 -c 1 -i 15 -a 1 -x {0.0 4.0 10 ------- null}
h -t 1.782296 -s 2 -d 3 -p tcp -e 1040 -c 1 -i 15 -a 1 -x {0.0 4.0 -1 ------- null}
r -t 1.783296 -s 2 -d 3 -p tcp -e 1040 -c 1 -i 14 -a 1 -x {0.0 4.0 9 ------- null}
+ -t 1.783296 -s 3 -d 4 -p tcp -e 1040 -c 1 -i 14 -a 1 -x {0.0 4.0 9 ------- null}
- -t 1.783296 -s 3 -d 4 -p tcp -e 1040 -c 1 -i 14 -a 1 -x {0.0 4.0 9 ------- null}
h -t 1.783296 -s 3 -d 4 -p tcp -e 1040 -c 1 -i 14 -a 1 -x {0.0 4.0 -1 ------- null}
r -t 1.7883792 -s 3 -d 4 -p tcp -e 1040 -c 1 -i 14 -a 1 -x {0.0 4.0 9 ------- null}
+ -t 1.7883792 -s 4 -d 3 -p ack -e 40 -c 1 -i 28 -a 1 -x {4.0 0.0 9 ------- null}
- -t 1.7883792 -s 4 -d 3 -p ack -e 40 -c 1 -i 28 -a 1 -x {4.0 0.0 9 ------- null}
h -t 1.7883792 -s 4 -d 3 -p ack -e 40 -c 1 -i 28 -a 1 -x {4.0 0.0 -1 ------- null}
r -t 1.7933824 -s 4 -d 3 -p ack -e 40 -c 1 -i 28 -a 1 -x {4.0 0.0 9 ------- null}
+ -t 1.7933824 -s 3 -d 2 -p ack -e 40 -c 1 -i 28 -a 1 -x {4.0 0.0 9 ------- null}
- -t 1.7933824 -s 3 -d 2 -p ack -e 40 -c 1 -i 28 -a 1 -x {4.0 0.0 9 ------- null}
h -t 1.7933824 -s 3 -d 2 -p ack -e 40 -c 1 -i 28 -a 1 -x {4.0 0.0 -1 ------- null}
r -t 1.7975824 -s 3 -d 2 -p ack -e 40 -c 1 -i 28 -a 1 -x {4.0 0.0 9 ------- null}
+ -t 1.7975824 -s 2 -d 0 -p ack -e 40 -c 1 -i 28 -a 1 -x {4.0 0.0 9 ------- null}
- -t 1.7975824 -s 2 -d 0 -p ack -e 40 -c 1 -i 28 -a 1 -x {4.0 0.0 9 ------- null}
h -t 1.7975824 -s 2 -d 0 -p ack -e 40 -c 1 -i 28 -a 1 -x {4.0 0.0 -1 ------- null}
r -t 1.8025856 -s 2 -d 0 -p ack -e 40 -c 1 -i 28 -a 1 -x {4.0 0.0 9 ------- null}
+ -t 1.8025856 -s 0 -d 2 -p tcp -e 1040 -c 1 -i 29 -a 1 -x {0.0 4.0 19 ------- null}
- -t 1.8025856 -s 0 -d 2 -p tcp -e 1040 -c 1 -i 29 -a 1 -x {0.0 4.0 19 ------- null}
h -t 1.8025856 -s 0 -d 2 -p tcp -e 1040 -c 1 -i 29 -a 1 -x {0.0 4.0 -1 ------- null}
+ -t 1.8025856 -s 0 -d 2 -p tcp -e 1040 -c 1 -i 30 -a 1 -x {0.0 4.0 20 ------- null}
- -t 1.8026688 -s 0 -d 2 -p tcp -e 1040 -c 1 -i 30 -a 1 -x {0.0 4.0 20 ------- null}
h -t 1.8026688 -s 0 -d 2 -p tcp -e 1040 -c 1 -i 30 -a 1 -x {0.0 4.0 -1 ------- null}
r -t 1.8076688 -s 0 -d 2 -p tcp -e 1040 -c 1 -i 29 -a 1 -x {0.0 4.0 19 ------- null}
+ -t 1.8076688 -s 2 -d 3 -p tcp -e 1040 -c 1 -i 29 -a 1 -x {0.0 4.0 19 ------- null}
r -t 1.807752 -s 0 -d 2 -p tcp -e 1040 -c 1 -i 30 -a 1 -x {0.0 4.0 20 ------- null}
+ -t 1.807752 -s 2 -d 3 -p tcp -e 1040 -c 1 -i 30 -a 1 -x {0.0 4.0 20 ------- null}
d -t 1.807752 -s 2 -d 3 -p tcp -e 1040 -c 1 -i 30 -a 1 -x {0.0 4.0 20 ------- null}
- -t 1.865496 -s 2 -d 3 -p tcp -e 1040 -c 1 -i 17 -a 1 -x {0.0 4.0 11 ------- null}
h -t 1.865496 -s 2 -d 3 -p tcp -e 1040 -c 1 -i 17 -a 1 -x {0.0 4.0 -1 ------- null}
r -t 1.866496 -s 2 -d 3 -p tcp -e 1040 -c 1 -i 15 -a 1 -x {0.0 4.0 10 ------- null}
+ -t 1.866496 -s 3 -d 4 -p tcp -e 1040 -c 1 -i 15 -a 1 -x {0.0 4.0 10 ------- null}
- -t 1.866496 -s 3 -d 4 -p tcp -e 1040 -c 1 -i 15 -a 1 -x {0.0 4.0 10 ------- null}
h -t 1.866496 -s 3 -d 4 -p tcp -e 1040 -c 1 -i 15 -a 1 -x {0.0 4.0 -1 ------- null}
r -t 1.8715792 -s 3 -d 4 -p tcp -e 1040 -c 1 -i 15 -a 1 -x {0.0 4.0 10 ------- null}
+ -t 1.8715792 -s 4 -d 3 -p ack -e 40 -c 1 -i 31 -a 1 -x {4.0 0.0 10 ------- null}
- -t 1.8715792 -s 4 -d 3 -p ack -e 40 -c 1 -i 31 -a 1 -x {4.0 0.0 10 ------- null}
h -t 1.8715792 -s 4 -d 3 -p ack -e 40 -c 1 -i 31 -a 1 -x {4.0 0.0 -1 ------- null}
r -t 1.8765824 -s 4 -d 3 -p ack -e 40 -c 1 -i 31 -a 1 -x {4.0 0.0 10 ------- null}
+ -t 1.8765824 -s 3 -d 2 -p ack -e 40 -c 1 -i 31 -a 1 -x {4.0 0.0 10 ------- null}
- -t 1.8765824 -s 3 -d 2 -p ack -e 40 -c 1 -i 31 -a 1 -x {4.0 0.0 10 ------- null}
h -t 1.8765824 -s 3 -d 2 -p ack -e 40 -c 1 -i 31 -a 1 -x {4.0 0.0 -1 ------- null}
r -t 1.8807824 -s 3 -d 2 -p ack -e 40 -c 1 -i 31 -a 1 -x {4.0 0.0 10 ------- null}
+ -t 1.8807824 -s 2 -d 0 -p ack -e 40 -c 1 -i 31 -a 1 -x {4.0 0.0 10 ------- null}
- -t 1.8807824 -s 2 -d 0 -p ack -e 40 -c 1 -i 31 -a 1 -x {4.0 0.0 10 ------- null}
h -t 1.8807824 -s 2 -d 0 -p ack -e 40 -c 1 -i 31 -a 1 -x {4.0 0.0 -1 ------- null}
r -t 1.8857856 -s 2 -d 0 -p ack -e 40 -c 1 -i 31 -a 1 -x {4.0 0.0 10 ------- null}
+ -t 1.8857856 -s 0 -d 2 -p tcp -e 1040 -c 1 -i 32 -a 1 -x {0.0 4.0 21 ------- null}
- -t 1.8857856 -s 0 -d 2 -p tcp -e 1040 -c 1 -i 32 -a 1 -x {0.0 4.0 21 ------- null}
h -t 1.8857856 -s 0 -d 2 -p tcp -e 1040 -c 1 -i 32 -a 1 -x {0.0 4.0 -1 ------- null}
+ -t 1.8857856 -s 0 -d 2 -p tcp -e 1040 -c 1 -i 33 -a 1 -x {0.0 4.0 22 ------- null}
- -t 1.8858688 -s 0 -d 2 -p tcp -e 1040 -c 1 -i 33 -a 1 -x {0.0 4.0 22 ------- null}
h -t 1.8858688 -s 0 -d 2 -p tcp -e 1040 -c 1 -i 33 -a 1 -x {0.0 4.0 -1 ------- null}
r -t 1.8908688 -s 0 -d 2 -p tcp -e 1040 -c 1 -i 32 -a 1 -x {0.0 4.0 21 ------- null}
+ -t 1.8908688 -s 2 -d 3 -p tcp -e 1040 -c 1 -i 32 -a 1 -x {0.0 4.0 21 ------- null}
r -t 1.890952 -s 0 -d 2 -p tcp -e 1040 -c 1 -i 33 -a 1 -x {0.0 4.0 22 ------- null}
+ -t 1.890952 -s 2 -d 3 -p tcp -e 1040 -c 1 -i 33 -a 1 -x {0.0 4.0 22 ------- null}
d -t 1.890952 -s 2 -d 3 -p tcp -e 1040 -c 1 -i 33 -a 1 -x {0.0 4.0 22 ------- null}
- -t 1.948696 -s 2 -d 3 -p tcp -e 1040 -c 1 -i 18 -a 1 -x {0.0 4.0 12 ------- null}
h -t 1.948696 -s 2 -d 3 -p tcp -e 1040 -c 1 -i 18 -a 1 -x {0.0 4.0 -1 ------- null}
r -t 1.949696 -s 2 -d 3 -p tcp -e 1040 -c 1 -i 17 -a 1 -x {0.0 4.0 11 ------- null}
+ -t 1.949696 -s 3 -d 4 -p tcp -e 1040 -c 1 -i 17 -a 1 -x {0.0 4.0 11 ------- null}
- -t 1.949696 -s 3 -d 4 -p tcp -e 1040 -c 1 -i 17 -a 1 -x {0.0 4.0 11 ------- null}
h -t 1.949696 -s 3 -d 4 -p tcp -e 1040 -c 1 -i 17 -a 1 -x {0.0 4.0 -1 ------- null}
r -t 1.9547792 -s 3 -d 4 -p tcp -e 1040 -c 1 -i 17 -a 1 -x {0.0 4.0 11 ------- null}
+ -t 1.9547792 -s 4 -d 3 -p ack -e 40 -c 1 -i 34 -a 1 -x {4.0 0.0 11 ------- null}
- -t 1.9547792 -s 4 -d 3 -p ack -e 40 -c 1 -i 34 -a 1 -x {4.0 0.0 11 ------- null}
h -t 1.9547792 -s 4 -d 3 -p ack -e 40 -c 1 -i 34 -a 1 -x {4.0 0.0 -1 ------- null}
r -t 1.9597824 -s 4 -d 3 -p ack -e 40 -c 1 -i 34 -a 1 -x {4.0 0.0 11 ------- null}
+ -t 1.9597824 -s 3 -d 2 -p ack -e 40 -c 1 -i 34 -a 1 -x {4.0 0.0 11 ------- null}
- -t 1.9597824 -s 3 -d 2 -p ack -e 40 -c 1 -i 34 -a 1 -x {4.0 0.0 11 ------- null}
h -t 1.9597824 -s 3 -d 2 -p ack -e 40 -c 1 -i 34 -a 1 -x {4.0 0.0 -1 ------- null}
r -t 1.9639824 -s 3 -d 2 -p ack -e 40 -c 1 -i 34 -a 1 -x {4.0 0.0 11 ------- null}
+ -t 1.9639824 -s 2 -d 0 -p ack -e 40 -c 1 -i 34 -a 1 -x {4.0 0.0 11 ------- null}
- -t 1.9639824 -s 2 -d 0 -p ack -e 40 -c 1 -i 34 -a 1 -x {4.0 0.0 11 ------- null}
h -t 1.9639824 -s 2 -d 0 -p ack -e 40 -c 1 -i 34 -a 1 -x {4.0 0.0 -1 ------- null}
r -t 1.9689856 -s 2 -d 0 -p ack -e 40 -c 1 -i 34 -a 1 -x {4.0 0.0 11 ------- null}
+ -t 1.9689856 -s 0 -d 2 -p tcp -e 1040 -c 1 -i 35 -a 1 -x {0.0 4.0 23 ------- null}
- -t 1.9689856 -s 0 -d 2 -p tcp -e 1040 -c 1 -i 35 -a 1 -x {0.0 4.0 23 ------- null}
h -t 1.9689856 -s 0 -d 2 -p tcp -e 1040 -c 1 -i 35 -a 1 -x {0.0 4.0 -1 ------- null}
+ -t 1.9689856 -s 0 -d 2 -p tcp -e 1040 -c 1 -i 36 -a 1 -x {0.0 4.0 24 ------- null}